 Gaussian 16, Revision A.03,
 Gaussian 16:  ES64L-G16RevA.03 25-Dec-2016

 ----------------------------------------------------------
 # irc=(calcall,stepsize=5) m062x/6-311++g(d,p) iop(7/33=1)
 ----------------------------------------------------------

 -------------------
 Title Card Required
 -------------------
 Symbolic Z-matrix:
 Charge =  0 Multiplicity = 2

 SCF Done:  E(UM062X) =  -232.901904298     A.U. after   21 cycles
 SCF Done:  E(UM062X) =  -232.901957646     A.U. after   18 cycles
 SCF Done:  E(UM062X) =  -232.902091323     A.U. after   18 cycles
 SCF Done:  E(UM062X) =  -232.902277618     A.U. after   17 cycles
 SCF Done:  E(UM062X) =  -232.902499791     A.U. after   18 cycles
 SCF Done:  E(UM062X) =  -232.902746086     A.U. after   17 cycles
 SCF Done:  E(UM062X) =  -232.903008224     A.U. after   17 cycles
 SCF Done:  E(UM062X) =  -232.903280332     A.U. after   17 cycles
 SCF Done:  E(UM062X) =  -232.903558163     A.U. after   17 cycles
 SCF Done:  E(UM062X) =  -232.903838460     A.U. after   16 cycles
 SCF Done:  E(UM062X) =  -232.901967285     A.U. after   20 cycles
 SCF Done:  E(UM062X) =  -232.902197500     A.U. after   17 cycles
 SCF Done:  E(UM062X) =  -232.902652846     A.U. after   17 cycles
 SCF Done:  E(UM062X) =  -232.903396166     A.U. after   17 cycles
 SCF Done:  E(UM062X) =  -232.904489733     A.U. after   17 cycles
 SCF Done:  E(UM062X) =  -232.905988798     A.U. after   17 cycles
 SCF Done:  E(UM062X) =  -232.907921866     A.U. after   17 cycles
 SCF Done:  E(UM062X) =  -232.910292697     A.U. after   15 cycles
 SCF Done:  E(UM062X) =  -232.913081255     A.U. after   15 cycles
 SCF Done:  E(UM062X) =  -232.916227297     A.U. after   15 cycles

                          Input orientation:
 ---------------------------------------------------------------------
 Center     Atomic      Atomic             Coordinates (Angstroms)
 Number     Number       Type             X           Y           Z
 ---------------------------------------------------------------------
      1          6           0        0.061883   -0.599330    1.018080
      2          1           0        0.064527   -0.590168    2.104213
      3          6           0        1.250479   -0.600603    0.387716
      4          1           0        2.149429   -0.628008    0.997409
      5          6           0        1.455308   -0.564694   -1.094017
      6          1           0        1.978794   -1.464886   -1.429748
      7          1           0        0.519373   -0.476928   -1.644191
      8          1           0        2.085191    0.286064   -1.369364
      9          6           0       -1.250023   -0.566260    0.353645
     10          1           0       -2.093410   -0.770038    1.008962
     11          1           0       -1.435451    0.768996   -0.083959
     12          1           0       -1.317209   -1.109937   -0.586645
     13          8           0       -1.239265    1.877436   -0.432748
     14          1           0       -0.353571    1.942100   -0.051740
 ---------------------------------------------------------------------

 Alpha  occ. eigenvalues --  -19.60758 -10.57006 -10.56804 -10.56188 -10.54719
 Alpha  occ. eigenvalues --   -1.08916  -0.92944  -0.83919  -0.76519  -0.62957
 Alpha  occ. eigenvalues --   -0.58205  -0.55215  -0.51392  -0.50246  -0.48259
 Alpha  occ. eigenvalues --   -0.47873  -0.44790  -0.42476  -0.37208  -0.37033
 Alpha  occ. eigenvalues --   -0.28237
 Alpha virt. eigenvalues --   -0.00837   0.00948   0.01069   0.02098   0.02950
 Alpha virt. eigenvalues --    0.03645   0.03879   0.04818   0.05631   0.07831
 Alpha virt. eigenvalues --    0.08564   0.09478   0.10415   0.11002   0.11948

  Beta  occ. eigenvalues --  -19.60136 -10.56832 -10.56327 -10.56273 -10.54736
  Beta  occ. eigenvalues --   -1.06577  -0.92220  -0.82934  -0.75313  -0.62301
  Beta  occ. eigenvalues --   -0.57715  -0.52184  -0.50483  -0.49544  -0.47329
  Beta  occ. eigenvalues --   -0.45543  -0.44495  -0.41886  -0.35899  -0.33537
  Beta virt. eigenvalues --   -0.09747  -0.00788   0.01066   0.01247   0.02189
  Beta virt. eigenvalues --    0.03697   0.04067   0.04283   0.05110   0.05939
  Beta virt. eigenvalues --    0.07931   0.08492   0.09537   0.10435   0.10945

 Mulliken charges and spin densities:
               1          2
     1  C    0.032038  -0.159912
     2  H    0.201054   0.006374
     3  C    0.091881   0.322144
     4  H    0.212859  -0.014150
     5  C   -0.713982  -0.023229
     6  H    0.164143   0.013161
     7  H    0.186541   0.000937
     8  H    0.183173   0.011756
     9  C   -0.843502   0.633632
    10  H    0.192584  -0.015218
    11  H    0.360578  -0.045328
    12  H    0.190255  -0.017853
    13  O   -0.474404   0.290836
    14  H    0.216782  -0.003150
 Sum of Mulliken charges =  -0.00000   1.00000

 Dipole moment (field-independent basis, Debye):
    X=              2.2601    Y=             -2.6599    Z=              1.0554  Tot=              3.6465
 Quadrupole moment (field-independent basis, Debye-Ang):
   XX=            -32.6330   YY=            -39.2806   ZZ=            -32.3237
   XY=              5.8232   XZ=             -2.1012   YZ=              2.5317

  Exact polarizability:   0.000   0.000   0.000   0.000   0.000   0.000
 Approx polarizability:  85.297  -7.121  69.499  -3.117  -5.778  62.739

 Normal termination of Gaussian 16 at Wed Mar  3 12:08:29 2021.
