 Gaussian 16, Revision A.03,
 Gaussian 16:  ES64L-G16RevA.03 25-Dec-2016

 ----------------------------------------------------------------------
 # m062x/6-311++g(d,p) irc=(calcall,stepsize=3,maxpoints=10) iop(7/33=1
 )
 ----------------------------------------------------------------------

 -------------------
 Title Card Required
 -------------------
 Symbolic Z-matrix:
 Charge =  0 Multiplicity = 2

 SCF Done:  E(UM062X) =  -232.900738470     A.U. after   21 cycles
 SCF Done:  E(UM062X) =  -232.900756983     A.U. after   18 cycles
 SCF Done:  E(UM062X) =  -232.900815881     A.U. after   18 cycles
 SCF Done:  E(UM062X) =  -232.900924882     A.U. after   18 cycles
 SCF Done:  E(UM062X) =  -232.901095278     A.U. after   18 cycles
 SCF Done:  E(UM062X) =  -232.901339329     A.U. after   18 cycles
 SCF Done:  E(UM062X) =  -232.901670206     A.U. after   18 cycles
 SCF Done:  E(UM062X) =  -232.902101604     A.U. after   17 cycles
 SCF Done:  E(UM062X) =  -232.902647655     A.U. after   17 cycles
 SCF Done:  E(UM062X) =  -232.903322885     A.U. after   17 cycles
 SCF Done:  E(UM062X) =  -232.900753463     A.U. after   21 cycles
 SCF Done:  E(UM062X) =  -232.900795964     A.U. after   17 cycles
 SCF Done:  E(UM062X) =  -232.900859812     A.U. after   17 cycles
 SCF Done:  E(UM062X) =  -232.900941757     A.U. after   17 cycles
 SCF Done:  E(UM062X) =  -232.901038503     A.U. after   16 cycles
 SCF Done:  E(UM062X) =  -232.901147348     A.U. after   16 cycles
 SCF Done:  E(UM062X) =  -232.901266046     A.U. after   16 cycles
 SCF Done:  E(UM062X) =  -232.901392729     A.U. after   17 cycles
 SCF Done:  E(UM062X) =  -232.901525841     A.U. after   17 cycles
 SCF Done:  E(UM062X) =  -232.901664067     A.U. after   16 cycles

                          Input orientation:
 ---------------------------------------------------------------------
 Center     Atomic      Atomic             Coordinates (Angstroms)
 Number     Number       Type             X           Y           Z
 ---------------------------------------------------------------------
      1          6           0       -1.835816   -0.704187   -0.445663
      2          1           0       -1.983010    0.090217   -1.169156
      3          1           0       -2.506586   -1.552760   -0.505031
      4          6           0       -0.889196   -0.640506    0.486812
      5          1           0       -0.791761   -1.462236    1.193197
      6          6           0        0.088629    0.478276    0.662077
      7          1           0        1.115768    0.067332    0.535599
      8          1           0        0.096611    0.791544    1.711957
      9          6           0       -0.074907    1.671421   -0.262544
     10          1           0       -1.040631    2.158153   -0.104062
     11          1           0        0.711359    2.404238   -0.078816
     12          1           0       -0.013190    1.373194   -1.311672
     13          8           0        2.213948   -0.770324   -0.294433
     14          1           0        1.557336   -1.229132   -0.846269
 ---------------------------------------------------------------------

 Alpha  occ. eigenvalues --  -19.67542 -10.55073 -10.54881 -10.53819 -10.53129
 Alpha  occ. eigenvalues --   -1.13473  -0.91464  -0.82925  -0.73759  -0.62865
 Alpha  occ. eigenvalues --   -0.56811  -0.55291  -0.54709  -0.49922  -0.48097
 Alpha  occ. eigenvalues --   -0.46171  -0.42722  -0.42103  -0.40620  -0.39674
 Alpha  occ. eigenvalues --   -0.32122
 Alpha virt. eigenvalues --   -0.00473   0.01262   0.01331   0.01779   0.03166
 Alpha virt. eigenvalues --    0.03878   0.04189   0.04664   0.05958   0.07571
 Alpha virt. eigenvalues --    0.09152   0.09768   0.10860   0.11906   0.12669

  Beta  occ. eigenvalues --  -19.66035 -10.55088 -10.54720 -10.53802 -10.53135
  Beta  occ. eigenvalues --   -1.06400  -0.91144  -0.82732  -0.73371  -0.62462
  Beta  occ. eigenvalues --   -0.55966  -0.52943  -0.51868  -0.49796  -0.46160
  Beta  occ. eigenvalues --   -0.42411  -0.41852  -0.40446  -0.39155  -0.32608
  Beta virt. eigenvalues --   -0.09897  -0.00344   0.01311   0.01420   0.01955
  Beta virt. eigenvalues --    0.03535   0.03915   0.04218   0.04771   0.06060
  Beta virt. eigenvalues --    0.07712   0.09227   0.10072   0.10952   0.12182

 Mulliken charges and spin densities:
               1          2
     1  C   -0.499254   0.024655
     2  H    0.145751  -0.001092
     3  H    0.153644  -0.001559
     4  C    0.180039  -0.020073
     5  H    0.213346  -0.000347
     6  C   -0.586260   0.158703
     7  H    0.244646  -0.031844
     8  H    0.196113   0.004454
     9  C   -0.529301  -0.004133
    10  H    0.161259   0.007556
    11  H    0.164190  -0.000940
    12  H    0.163099   0.000802
    13  O   -0.257624   0.881954
    14  H    0.250350  -0.018137
 Sum of Mulliken charges =  -0.00000   1.00000

 Dipole moment (field-independent basis, Debye):
    X=             -1.4511    Y=             -0.1551    Z=             -0.4054  Tot=              1.5146
 Quadrupole moment (field-independent basis, Debye-Ang):
   XX=            -38.9832   YY=            -31.1742   ZZ=            -31.6740
   XY=              0.9183   XZ=              0.2000   YZ=              1.1708

  Exact polarizability:   0.000   0.000   0.000   0.000   0.000   0.000
 Approx polarizability:  77.145  -1.318  58.866   8.400   2.640  65.030

 Normal termination of Gaussian 16 at Wed Mar  3 11:29:34 2021.
